Title: ** sch_path: /home/ttuser/vmswap/tt09-analogmux/xschem/tb_4to1mux.sch
Date: Tue Oct 15 17:16:32  2024
Plotname: Operating Point
Flags: real
No. Variables: 1817
No. Points: 1
Variables:
	0	v(net1)	voltage
	1	v(en1)	voltage
	2	v(en2)	voltage
	3	v(en3)	voltage
	4	v(en4)	voltage
	5	v(in1)	voltage
	6	v(in2)	voltage
	7	v(in3)	voltage
	8	v(in4)	voltage
	9	v(m.x6.x0.msky130_fd_pr__pfet_01v8_lvt#body)	voltage
	10	v(m.x6.x0.msky130_fd_pr__pfet_01v8_lvt#dbody)	voltage
	11	v(m.x6.x0.msky130_fd_pr__pfet_01v8_lvt#sbody)	voltage
	12	v(m.x6.x1.msky130_fd_pr__nfet_01v8_lvt#body)	voltage
	13	v(m.x6.x1.msky130_fd_pr__nfet_01v8_lvt#dbody)	voltage
	14	v(m.x6.x1.msky130_fd_pr__nfet_01v8_lvt#sbody)	voltage
	15	v(m.x6.x2.msky130_fd_pr__pfet_01v8_lvt#body)	voltage
	16	v(m.x6.x2.msky130_fd_pr__pfet_01v8_lvt#dbody)	voltage
	17	v(m.x6.x2.msky130_fd_pr__pfet_01v8_lvt#sbody)	voltage
	18	v(m.x6.x3.msky130_fd_pr__nfet_01v8_lvt#body)	voltage
	19	v(m.x6.x3.msky130_fd_pr__nfet_01v8_lvt#dbody)	voltage
	20	v(m.x6.x3.msky130_fd_pr__nfet_01v8_lvt#sbody)	voltage
	21	v(m.x6.x4.msky130_fd_pr__pfet_01v8_lvt#body)	voltage
	22	v(m.x6.x4.msky130_fd_pr__pfet_01v8_lvt#dbody)	voltage
	23	v(m.x6.x4.msky130_fd_pr__pfet_01v8_lvt#sbody)	voltage
	24	v(m.x6.x5.msky130_fd_pr__nfet_01v8_lvt#body)	voltage
	25	v(m.x6.x5.msky130_fd_pr__nfet_01v8_lvt#dbody)	voltage
	26	v(m.x6.x5.msky130_fd_pr__nfet_01v8_lvt#sbody)	voltage
	27	v(m.x6.x6.msky130_fd_pr__nfet_01v8_lvt#body)	voltage
	28	v(m.x6.x6.msky130_fd_pr__nfet_01v8_lvt#dbody)	voltage
	29	v(m.x6.x6.msky130_fd_pr__nfet_01v8_lvt#sbody)	voltage
	30	v(m.x6.x7.msky130_fd_pr__pfet_01v8_lvt#body)	voltage
	31	v(m.x6.x7.msky130_fd_pr__pfet_01v8_lvt#dbody)	voltage
	32	v(m.x6.x7.msky130_fd_pr__pfet_01v8_lvt#sbody)	voltage
	33	v(m.x6.x8.msky130_fd_pr__nfet_01v8_lvt#body)	voltage
	34	v(m.x6.x8.msky130_fd_pr__nfet_01v8_lvt#dbody)	voltage
	35	v(m.x6.x8.msky130_fd_pr__nfet_01v8_lvt#sbody)	voltage
	36	v(m.x6.x9.msky130_fd_pr__nfet_01v8_lvt#body)	voltage
	37	v(m.x6.x9.msky130_fd_pr__nfet_01v8_lvt#dbody)	voltage
	38	v(m.x6.x9.msky130_fd_pr__nfet_01v8_lvt#sbody)	voltage
	39	v(m.x6.x10.msky130_fd_pr__pfet_01v8_lvt#body)	voltage
	40	v(m.x6.x10.msky130_fd_pr__pfet_01v8_lvt#dbody)	voltage
	41	v(m.x6.x10.msky130_fd_pr__pfet_01v8_lvt#sbody)	voltage
	42	v(m.x6.x11.msky130_fd_pr__pfet_01v8_lvt#body)	voltage
	43	v(m.x6.x11.msky130_fd_pr__pfet_01v8_lvt#dbody)	voltage
	44	v(m.x6.x11.msky130_fd_pr__pfet_01v8_lvt#sbody)	voltage
	45	v(m.x6.x12.msky130_fd_pr__nfet_01v8_lvt#body)	voltage
	46	v(m.x6.x12.msky130_fd_pr__nfet_01v8_lvt#dbody)	voltage
	47	v(m.x6.x12.msky130_fd_pr__nfet_01v8_lvt#sbody)	voltage
	48	v(m.x6.x13.msky130_fd_pr__pfet_01v8_lvt#body)	voltage
	49	v(m.x6.x13.msky130_fd_pr__pfet_01v8_lvt#dbody)	voltage
	50	v(m.x6.x13.msky130_fd_pr__pfet_01v8_lvt#sbody)	voltage
	51	v(m.x6.x14.msky130_fd_pr__nfet_01v8_lvt#body)	voltage
	52	v(m.x6.x14.msky130_fd_pr__nfet_01v8_lvt#dbody)	voltage
	53	v(m.x6.x14.msky130_fd_pr__nfet_01v8_lvt#sbody)	voltage
	54	v(m.x6.x15.msky130_fd_pr__pfet_01v8_lvt#body)	voltage
	55	v(m.x6.x15.msky130_fd_pr__pfet_01v8_lvt#dbody)	voltage
	56	v(m.x6.x15.msky130_fd_pr__pfet_01v8_lvt#sbody)	voltage
	57	v(m.x7.x0.msky130_fd_pr__nfet_01v8#body)	voltage
	58	v(m.x7.x0.msky130_fd_pr__nfet_01v8#dbody)	voltage
	59	v(m.x7.x0.msky130_fd_pr__nfet_01v8#sbody)	voltage
	60	v(m.x7.x1.msky130_fd_pr__nfet_01v8#body)	voltage
	61	v(m.x7.x1.msky130_fd_pr__nfet_01v8#dbody)	voltage
	62	v(m.x7.x1.msky130_fd_pr__nfet_01v8#sbody)	voltage
	63	v(m.x7.x2.msky130_fd_pr__pfet_01v8_hvt#body)	voltage
	64	v(m.x7.x2.msky130_fd_pr__pfet_01v8_hvt#dbody)	voltage
	65	v(m.x7.x2.msky130_fd_pr__pfet_01v8_hvt#sbody)	voltage
	66	v(m.x7.x3.msky130_fd_pr__pfet_01v8_hvt#body)	voltage
	67	v(m.x7.x3.msky130_fd_pr__pfet_01v8_hvt#dbody)	voltage
	68	v(m.x7.x3.msky130_fd_pr__pfet_01v8_hvt#sbody)	voltage
	69	v(m.x7.x4.msky130_fd_pr__pfet_01v8_hvt#body)	voltage
	70	v(m.x7.x4.msky130_fd_pr__pfet_01v8_hvt#dbody)	voltage
	71	v(m.x7.x4.msky130_fd_pr__pfet_01v8_hvt#sbody)	voltage
	72	v(m.x7.x5.msky130_fd_pr__nfet_01v8#body)	voltage
	73	v(m.x7.x5.msky130_fd_pr__nfet_01v8#dbody)	voltage
	74	v(m.x7.x5.msky130_fd_pr__nfet_01v8#sbody)	voltage
	75	v(m.x7.x6.msky130_fd_pr__pfet_01v8_hvt#body)	voltage
	76	v(m.x7.x6.msky130_fd_pr__pfet_01v8_hvt#dbody)	voltage
	77	v(m.x7.x6.msky130_fd_pr__pfet_01v8_hvt#sbody)	voltage
	78	v(m.x7.x7.msky130_fd_pr__pfet_01v8_hvt#body)	voltage
	79	v(m.x7.x7.msky130_fd_pr__pfet_01v8_hvt#dbody)	voltage
	80	v(m.x7.x7.msky130_fd_pr__pfet_01v8_hvt#sbody)	voltage
	81	v(m.x7.x8.msky130_fd_pr__nfet_01v8#body)	voltage
	82	v(m.x7.x8.msky130_fd_pr__nfet_01v8#dbody)	voltage
	83	v(m.x7.x8.msky130_fd_pr__nfet_01v8#sbody)	voltage
	84	v(m.x7.x9.msky130_fd_pr__nfet_01v8#body)	voltage
	85	v(m.x7.x9.msky130_fd_pr__nfet_01v8#dbody)	voltage
	86	v(m.x7.x9.msky130_fd_pr__nfet_01v8#sbody)	voltage
	87	v(m.x7.x10.msky130_fd_pr__nfet_01v8#body)	voltage
	88	v(m.x7.x10.msky130_fd_pr__nfet_01v8#dbody)	voltage
	89	v(m.x7.x10.msky130_fd_pr__nfet_01v8#sbody)	voltage
	90	v(m.x7.x11.msky130_fd_pr__pfet_01v8_hvt#body)	voltage
	91	v(m.x7.x11.msky130_fd_pr__pfet_01v8_hvt#dbody)	voltage
	92	v(m.x7.x11.msky130_fd_pr__pfet_01v8_hvt#sbody)	voltage
	93	v(m.x7.x12.msky130_fd_pr__nfet_01v8#body)	voltage
	94	v(m.x7.x12.msky130_fd_pr__nfet_01v8#dbody)	voltage
	95	v(m.x7.x12.msky130_fd_pr__nfet_01v8#sbody)	voltage
	96	v(m.x7.x13.msky130_fd_pr__nfet_01v8#body)	voltage
	97	v(m.x7.x13.msky130_fd_pr__nfet_01v8#dbody)	voltage
	98	v(m.x7.x13.msky130_fd_pr__nfet_01v8#sbody)	voltage
	99	v(m.x7.x14.msky130_fd_pr__pfet_01v8_hvt#body)	voltage
	100	v(m.x7.x14.msky130_fd_pr__pfet_01v8_hvt#dbody)	voltage
	101	v(m.x7.x14.msky130_fd_pr__pfet_01v8_hvt#sbody)	voltage
	102	v(m.x7.x15.msky130_fd_pr__pfet_01v8_hvt#body)	voltage
	103	v(m.x7.x15.msky130_fd_pr__pfet_01v8_hvt#dbody)	voltage
	104	v(m.x7.x15.msky130_fd_pr__pfet_01v8_hvt#sbody)	voltage
	105	v(m.x7.x16.msky130_fd_pr__pfet_01v8_hvt#body)	voltage
	106	v(m.x7.x16.msky130_fd_pr__pfet_01v8_hvt#dbody)	voltage
	107	v(m.x7.x16.msky130_fd_pr__pfet_01v8_hvt#sbody)	voltage
	108	v(m.x7.x17.msky130_fd_pr__pfet_01v8_hvt#body)	voltage
	109	v(m.x7.x17.msky130_fd_pr__pfet_01v8_hvt#dbody)	voltage
	110	v(m.x7.x17.msky130_fd_pr__pfet_01v8_hvt#sbody)	voltage
	111	v(m.x7.x18.msky130_fd_pr__nfet_01v8#body)	voltage
	112	v(m.x7.x18.msky130_fd_pr__nfet_01v8#dbody)	voltage
	113	v(m.x7.x18.msky130_fd_pr__nfet_01v8#sbody)	voltage
	114	v(m.x7.x19.msky130_fd_pr__pfet_01v8_hvt#body)	voltage
	115	v(m.x7.x19.msky130_fd_pr__pfet_01v8_hvt#dbody)	voltage
	116	v(m.x7.x19.msky130_fd_pr__pfet_01v8_hvt#sbody)	voltage
	117	v(m.x7.x20.msky130_fd_pr__nfet_01v8#body)	voltage
	118	v(m.x7.x20.msky130_fd_pr__nfet_01v8#dbody)	voltage
	119	v(m.x7.x20.msky130_fd_pr__nfet_01v8#sbody)	voltage
	120	v(m.x7.x21.msky130_fd_pr__nfet_01v8#body)	voltage
	121	v(m.x7.x21.msky130_fd_pr__nfet_01v8#dbody)	voltage
	122	v(m.x7.x21.msky130_fd_pr__nfet_01v8#sbody)	voltage
	123	v(m.x7.x22.msky130_fd_pr__nfet_01v8#body)	voltage
	124	v(m.x7.x22.msky130_fd_pr__nfet_01v8#dbody)	voltage
	125	v(m.x7.x22.msky130_fd_pr__nfet_01v8#sbody)	voltage
	126	v(m.x7.x23.msky130_fd_pr__nfet_01v8#body)	voltage
	127	v(m.x7.x23.msky130_fd_pr__nfet_01v8#dbody)	voltage
	128	v(m.x7.x23.msky130_fd_pr__nfet_01v8#sbody)	voltage
	129	v(m.x7.x24.msky130_fd_pr__pfet_01v8_hvt#body)	voltage
	130	v(m.x7.x24.msky130_fd_pr__pfet_01v8_hvt#dbody)	voltage
	131	v(m.x7.x24.msky130_fd_pr__pfet_01v8_hvt#sbody)	voltage
	132	v(m.x7.x25.msky130_fd_pr__pfet_01v8_hvt#body)	voltage
	133	v(m.x7.x25.msky130_fd_pr__pfet_01v8_hvt#dbody)	voltage
	134	v(m.x7.x25.msky130_fd_pr__pfet_01v8_hvt#sbody)	voltage
	135	v(m.x7.x26.msky130_fd_pr__pfet_01v8_hvt#body)	voltage
	136	v(m.x7.x26.msky130_fd_pr__pfet_01v8_hvt#dbody)	voltage
	137	v(m.x7.x26.msky130_fd_pr__pfet_01v8_hvt#sbody)	voltage
	138	v(m.x7.x27.msky130_fd_pr__pfet_01v8_hvt#body)	voltage
	139	v(m.x7.x27.msky130_fd_pr__pfet_01v8_hvt#dbody)	voltage
	140	v(m.x7.x27.msky130_fd_pr__pfet_01v8_hvt#sbody)	voltage
	141	v(m.x7.x28.msky130_fd_pr__nfet_01v8#body)	voltage
	142	v(m.x7.x28.msky130_fd_pr__nfet_01v8#dbody)	voltage
	143	v(m.x7.x28.msky130_fd_pr__nfet_01v8#sbody)	voltage
	144	v(m.x7.x29.msky130_fd_pr__pfet_01v8_hvt#body)	voltage
	145	v(m.x7.x29.msky130_fd_pr__pfet_01v8_hvt#dbody)	voltage
	146	v(m.x7.x29.msky130_fd_pr__pfet_01v8_hvt#sbody)	voltage
	147	v(m.x7.x30.msky130_fd_pr__nfet_01v8#body)	voltage
	148	v(m.x7.x30.msky130_fd_pr__nfet_01v8#dbody)	voltage
	149	v(m.x7.x30.msky130_fd_pr__nfet_01v8#sbody)	voltage
	150	v(m.x7.x31.msky130_fd_pr__nfet_01v8#body)	voltage
	151	v(m.x7.x31.msky130_fd_pr__nfet_01v8#dbody)	voltage
	152	v(m.x7.x31.msky130_fd_pr__nfet_01v8#sbody)	voltage
	153	v(m.x7.x32.msky130_fd_pr__nfet_01v8#body)	voltage
	154	v(m.x7.x32.msky130_fd_pr__nfet_01v8#dbody)	voltage
	155	v(m.x7.x32.msky130_fd_pr__nfet_01v8#sbody)	voltage
	156	v(m.x7.x33.msky130_fd_pr__pfet_01v8_hvt#body)	voltage
	157	v(m.x7.x33.msky130_fd_pr__pfet_01v8_hvt#dbody)	voltage
	158	v(m.x7.x33.msky130_fd_pr__pfet_01v8_hvt#sbody)	voltage
	159	v(m.x7.x34.msky130_fd_pr__nfet_01v8#body)	voltage
	160	v(m.x7.x34.msky130_fd_pr__nfet_01v8#dbody)	voltage
	161	v(m.x7.x34.msky130_fd_pr__nfet_01v8#sbody)	voltage
	162	v(m.x7.x35.msky130_fd_pr__nfet_01v8#body)	voltage
	163	v(m.x7.x35.msky130_fd_pr__nfet_01v8#dbody)	voltage
	164	v(m.x7.x35.msky130_fd_pr__nfet_01v8#sbody)	voltage
	165	v(m.x7.x36.msky130_fd_pr__nfet_01v8#body)	voltage
	166	v(m.x7.x36.msky130_fd_pr__nfet_01v8#dbody)	voltage
	167	v(m.x7.x36.msky130_fd_pr__nfet_01v8#sbody)	voltage
	168	v(m.x7.x37.msky130_fd_pr__nfet_01v8#body)	voltage
	169	v(m.x7.x37.msky130_fd_pr__nfet_01v8#dbody)	voltage
	170	v(m.x7.x37.msky130_fd_pr__nfet_01v8#sbody)	voltage
	171	v(m.x7.x38.msky130_fd_pr__nfet_01v8#body)	voltage
	172	v(m.x7.x38.msky130_fd_pr__nfet_01v8#dbody)	voltage
	173	v(m.x7.x38.msky130_fd_pr__nfet_01v8#sbody)	voltage
	174	v(m.x7.x39.msky130_fd_pr__pfet_01v8_hvt#body)	voltage
	175	v(m.x7.x39.msky130_fd_pr__pfet_01v8_hvt#dbody)	voltage
	176	v(m.x7.x39.msky130_fd_pr__pfet_01v8_hvt#sbody)	voltage
	177	v(m.x7.x40.msky130_fd_pr__nfet_01v8#body)	voltage
	178	v(m.x7.x40.msky130_fd_pr__nfet_01v8#dbody)	voltage
	179	v(m.x7.x40.msky130_fd_pr__nfet_01v8#sbody)	voltage
	180	v(m.x7.x41.msky130_fd_pr__pfet_01v8_hvt#body)	voltage
	181	v(m.x7.x41.msky130_fd_pr__pfet_01v8_hvt#dbody)	voltage
	182	v(m.x7.x41.msky130_fd_pr__pfet_01v8_hvt#sbody)	voltage
	183	v(m.x7.x42.msky130_fd_pr__nfet_01v8#body)	voltage
	184	v(m.x7.x42.msky130_fd_pr__nfet_01v8#dbody)	voltage
	185	v(m.x7.x42.msky130_fd_pr__nfet_01v8#sbody)	voltage
	186	v(m.x7.x43.msky130_fd_pr__nfet_01v8#body)	voltage
	187	v(m.x7.x43.msky130_fd_pr__nfet_01v8#dbody)	voltage
	188	v(m.x7.x43.msky130_fd_pr__nfet_01v8#sbody)	voltage
	189	v(m.x7.x44.msky130_fd_pr__pfet_01v8_hvt#body)	voltage
	190	v(m.x7.x44.msky130_fd_pr__pfet_01v8_hvt#dbody)	voltage
	191	v(m.x7.x44.msky130_fd_pr__pfet_01v8_hvt#sbody)	voltage
	192	v(m.x7.x45.msky130_fd_pr__nfet_01v8#body)	voltage
	193	v(m.x7.x45.msky130_fd_pr__nfet_01v8#dbody)	voltage
	194	v(m.x7.x45.msky130_fd_pr__nfet_01v8#sbody)	voltage
	195	v(m.x7.x46.msky130_fd_pr__pfet_01v8_hvt#body)	voltage
	196	v(m.x7.x46.msky130_fd_pr__pfet_01v8_hvt#dbody)	voltage
	197	v(m.x7.x46.msky130_fd_pr__pfet_01v8_hvt#sbody)	voltage
	198	v(m.x7.x47.msky130_fd_pr__pfet_01v8_hvt#body)	voltage
	199	v(m.x7.x47.msky130_fd_pr__pfet_01v8_hvt#dbody)	voltage
	200	v(m.x7.x47.msky130_fd_pr__pfet_01v8_hvt#sbody)	voltage
	201	v(m.x7.x48.msky130_fd_pr__pfet_01v8_hvt#body)	voltage
	202	v(m.x7.x48.msky130_fd_pr__pfet_01v8_hvt#dbody)	voltage
	203	v(m.x7.x48.msky130_fd_pr__pfet_01v8_hvt#sbody)	voltage
	204	v(m.x7.x49.msky130_fd_pr__pfet_01v8_hvt#body)	voltage
	205	v(m.x7.x49.msky130_fd_pr__pfet_01v8_hvt#dbody)	voltage
	206	v(m.x7.x49.msky130_fd_pr__pfet_01v8_hvt#sbody)	voltage
	207	v(m.x7.x50.msky130_fd_pr__nfet_01v8#body)	voltage
	208	v(m.x7.x50.msky130_fd_pr__nfet_01v8#dbody)	voltage
	209	v(m.x7.x50.msky130_fd_pr__nfet_01v8#sbody)	voltage
	210	v(m.x7.x51.msky130_fd_pr__nfet_01v8#body)	voltage
	211	v(m.x7.x51.msky130_fd_pr__nfet_01v8#dbody)	voltage
	212	v(m.x7.x51.msky130_fd_pr__nfet_01v8#sbody)	voltage
	213	v(m.x7.x52.msky130_fd_pr__pfet_01v8_hvt#body)	voltage
	214	v(m.x7.x52.msky130_fd_pr__pfet_01v8_hvt#dbody)	voltage
	215	v(m.x7.x52.msky130_fd_pr__pfet_01v8_hvt#sbody)	voltage
	216	v(m.x7.x53.msky130_fd_pr__pfet_01v8_hvt#body)	voltage
	217	v(m.x7.x53.msky130_fd_pr__pfet_01v8_hvt#dbody)	voltage
	218	v(m.x7.x53.msky130_fd_pr__pfet_01v8_hvt#sbody)	voltage
	219	v(m.x7.x54.msky130_fd_pr__pfet_01v8_hvt#body)	voltage
	220	v(m.x7.x54.msky130_fd_pr__pfet_01v8_hvt#dbody)	voltage
	221	v(m.x7.x54.msky130_fd_pr__pfet_01v8_hvt#sbody)	voltage
	222	v(m.x7.x55.msky130_fd_pr__pfet_01v8_hvt#body)	voltage
	223	v(m.x7.x55.msky130_fd_pr__pfet_01v8_hvt#dbody)	voltage
	224	v(m.x7.x55.msky130_fd_pr__pfet_01v8_hvt#sbody)	voltage
	225	v(m.x7.x56.msky130_fd_pr__nfet_01v8#body)	voltage
	226	v(m.x7.x56.msky130_fd_pr__nfet_01v8#dbody)	voltage
	227	v(m.x7.x56.msky130_fd_pr__nfet_01v8#sbody)	voltage
	228	v(m.x7.x57.msky130_fd_pr__nfet_01v8#body)	voltage
	229	v(m.x7.x57.msky130_fd_pr__nfet_01v8#dbody)	voltage
	230	v(m.x7.x57.msky130_fd_pr__nfet_01v8#sbody)	voltage
	231	v(m.x7.x58.msky130_fd_pr__nfet_01v8#body)	voltage
	232	v(m.x7.x58.msky130_fd_pr__nfet_01v8#dbody)	voltage
	233	v(m.x7.x58.msky130_fd_pr__nfet_01v8#sbody)	voltage
	234	v(m.x7.x59.msky130_fd_pr__pfet_01v8_hvt#body)	voltage
	235	v(m.x7.x59.msky130_fd_pr__pfet_01v8_hvt#dbody)	voltage
	236	v(m.x7.x59.msky130_fd_pr__pfet_01v8_hvt#sbody)	voltage
	237	v(m.x7.x60.msky130_fd_pr__pfet_01v8_hvt#body)	voltage
	238	v(m.x7.x60.msky130_fd_pr__pfet_01v8_hvt#dbody)	voltage
	239	v(m.x7.x60.msky130_fd_pr__pfet_01v8_hvt#sbody)	voltage
	240	v(m.x7.x61.msky130_fd_pr__pfet_01v8_hvt#body)	voltage
	241	v(m.x7.x61.msky130_fd_pr__pfet_01v8_hvt#dbody)	voltage
	242	v(m.x7.x61.msky130_fd_pr__pfet_01v8_hvt#sbody)	voltage
	243	v(m.x7.x62.msky130_fd_pr__nfet_01v8#body)	voltage
	244	v(m.x7.x62.msky130_fd_pr__nfet_01v8#dbody)	voltage
	245	v(m.x7.x62.msky130_fd_pr__nfet_01v8#sbody)	voltage
	246	v(m.x7.x63.msky130_fd_pr__nfet_01v8#body)	voltage
	247	v(m.x7.x63.msky130_fd_pr__nfet_01v8#dbody)	voltage
	248	v(m.x7.x63.msky130_fd_pr__nfet_01v8#sbody)	voltage
	249	v(m.x7.x64.msky130_fd_pr__nfet_01v8#body)	voltage
	250	v(m.x7.x64.msky130_fd_pr__nfet_01v8#dbody)	voltage
	251	v(m.x7.x64.msky130_fd_pr__nfet_01v8#sbody)	voltage
	252	v(m.x7.x65.msky130_fd_pr__nfet_01v8#body)	voltage
	253	v(m.x7.x65.msky130_fd_pr__nfet_01v8#dbody)	voltage
	254	v(m.x7.x65.msky130_fd_pr__nfet_01v8#sbody)	voltage
	255	v(m.x7.x66.msky130_fd_pr__nfet_01v8#body)	voltage
	256	v(m.x7.x66.msky130_fd_pr__nfet_01v8#dbody)	voltage
	257	v(m.x7.x66.msky130_fd_pr__nfet_01v8#sbody)	voltage
	258	v(m.x7.x67.msky130_fd_pr__pfet_01v8_hvt#body)	voltage
	259	v(m.x7.x67.msky130_fd_pr__pfet_01v8_hvt#dbody)	voltage
	260	v(m.x7.x67.msky130_fd_pr__pfet_01v8_hvt#sbody)	voltage
	261	v(m.x7.x68.msky130_fd_pr__pfet_01v8_hvt#body)	voltage
	262	v(m.x7.x68.msky130_fd_pr__pfet_01v8_hvt#dbody)	voltage
	263	v(m.x7.x68.msky130_fd_pr__pfet_01v8_hvt#sbody)	voltage
	264	v(m.x7.x69.msky130_fd_pr__nfet_01v8#body)	voltage
	265	v(m.x7.x69.msky130_fd_pr__nfet_01v8#dbody)	voltage
	266	v(m.x7.x69.msky130_fd_pr__nfet_01v8#sbody)	voltage
	267	v(m.x7.x70.msky130_fd_pr__pfet_01v8_hvt#body)	voltage
	268	v(m.x7.x70.msky130_fd_pr__pfet_01v8_hvt#dbody)	voltage
	269	v(m.x7.x70.msky130_fd_pr__pfet_01v8_hvt#sbody)	voltage
	270	v(m.x7.x71.msky130_fd_pr__nfet_01v8#body)	voltage
	271	v(m.x7.x71.msky130_fd_pr__nfet_01v8#dbody)	voltage
	272	v(m.x7.x71.msky130_fd_pr__nfet_01v8#sbody)	voltage
	273	v(m.x7.x72.msky130_fd_pr__pfet_01v8_hvt#body)	voltage
	274	v(m.x7.x72.msky130_fd_pr__pfet_01v8_hvt#dbody)	voltage
	275	v(m.x7.x72.msky130_fd_pr__pfet_01v8_hvt#sbody)	voltage
	276	v(m.x7.x73.msky130_fd_pr__nfet_01v8#body)	voltage
	277	v(m.x7.x73.msky130_fd_pr__nfet_01v8#dbody)	voltage
	278	v(m.x7.x73.msky130_fd_pr__nfet_01v8#sbody)	voltage
	279	v(m.x7.x74.msky130_fd_pr__nfet_01v8#body)	voltage
	280	v(m.x7.x74.msky130_fd_pr__nfet_01v8#dbody)	voltage
	281	v(m.x7.x74.msky130_fd_pr__nfet_01v8#sbody)	voltage
	282	v(m.x7.x75.msky130_fd_pr__pfet_01v8_hvt#body)	voltage
	283	v(m.x7.x75.msky130_fd_pr__pfet_01v8_hvt#dbody)	voltage
	284	v(m.x7.x75.msky130_fd_pr__pfet_01v8_hvt#sbody)	voltage
	285	v(m.x7.x76.msky130_fd_pr__nfet_01v8#body)	voltage
	286	v(m.x7.x76.msky130_fd_pr__nfet_01v8#dbody)	voltage
	287	v(m.x7.x76.msky130_fd_pr__nfet_01v8#sbody)	voltage
	288	v(m.x7.x77.msky130_fd_pr__pfet_01v8_hvt#body)	voltage
	289	v(m.x7.x77.msky130_fd_pr__pfet_01v8_hvt#dbody)	voltage
	290	v(m.x7.x77.msky130_fd_pr__pfet_01v8_hvt#sbody)	voltage
	291	v(m.x7.x78.msky130_fd_pr__pfet_01v8_hvt#body)	voltage
	292	v(m.x7.x78.msky130_fd_pr__pfet_01v8_hvt#dbody)	voltage
	293	v(m.x7.x78.msky130_fd_pr__pfet_01v8_hvt#sbody)	voltage
	294	v(m.x7.x79.msky130_fd_pr__nfet_01v8#body)	voltage
	295	v(m.x7.x79.msky130_fd_pr__nfet_01v8#dbody)	voltage
	296	v(m.x7.x79.msky130_fd_pr__nfet_01v8#sbody)	voltage
	297	v(m.x7.x80.msky130_fd_pr__nfet_01v8#body)	voltage
	298	v(m.x7.x80.msky130_fd_pr__nfet_01v8#dbody)	voltage
	299	v(m.x7.x80.msky130_fd_pr__nfet_01v8#sbody)	voltage
	300	v(m.x7.x81.msky130_fd_pr__nfet_01v8#body)	voltage
	301	v(m.x7.x81.msky130_fd_pr__nfet_01v8#dbody)	voltage
	302	v(m.x7.x81.msky130_fd_pr__nfet_01v8#sbody)	voltage
	303	v(m.x7.x82.msky130_fd_pr__nfet_01v8#body)	voltage
	304	v(m.x7.x82.msky130_fd_pr__nfet_01v8#dbody)	voltage
	305	v(m.x7.x82.msky130_fd_pr__nfet_01v8#sbody)	voltage
	306	v(m.x7.x83.msky130_fd_pr__pfet_01v8_hvt#body)	voltage
	307	v(m.x7.x83.msky130_fd_pr__pfet_01v8_hvt#dbody)	voltage
	308	v(m.x7.x83.msky130_fd_pr__pfet_01v8_hvt#sbody)	voltage
	309	v(m.x7.x84.msky130_fd_pr__nfet_01v8#body)	voltage
	310	v(m.x7.x84.msky130_fd_pr__nfet_01v8#dbody)	voltage
	311	v(m.x7.x84.msky130_fd_pr__nfet_01v8#sbody)	voltage
	312	v(m.x7.x85.msky130_fd_pr__pfet_01v8_hvt#body)	voltage
	313	v(m.x7.x85.msky130_fd_pr__pfet_01v8_hvt#dbody)	voltage
	314	v(m.x7.x85.msky130_fd_pr__pfet_01v8_hvt#sbody)	voltage
	315	v(m.x7.x86.msky130_fd_pr__nfet_01v8#body)	voltage
	316	v(m.x7.x86.msky130_fd_pr__nfet_01v8#dbody)	voltage
	317	v(m.x7.x86.msky130_fd_pr__nfet_01v8#sbody)	voltage
	318	v(m.x7.x87.msky130_fd_pr__nfet_01v8#body)	voltage
	319	v(m.x7.x87.msky130_fd_pr__nfet_01v8#dbody)	voltage
	320	v(m.x7.x87.msky130_fd_pr__nfet_01v8#sbody)	voltage
	321	v(m.x7.x88.msky130_fd_pr__nfet_01v8#body)	voltage
	322	v(m.x7.x88.msky130_fd_pr__nfet_01v8#dbody)	voltage
	323	v(m.x7.x88.msky130_fd_pr__nfet_01v8#sbody)	voltage
	324	v(m.x7.x89.msky130_fd_pr__nfet_01v8#body)	voltage
	325	v(m.x7.x89.msky130_fd_pr__nfet_01v8#dbody)	voltage
	326	v(m.x7.x89.msky130_fd_pr__nfet_01v8#sbody)	voltage
	327	v(m.x7.x90.msky130_fd_pr__pfet_01v8_hvt#body)	voltage
	328	v(m.x7.x90.msky130_fd_pr__pfet_01v8_hvt#dbody)	voltage
	329	v(m.x7.x90.msky130_fd_pr__pfet_01v8_hvt#sbody)	voltage
	330	v(m.x7.x91.msky130_fd_pr__pfet_01v8_hvt#body)	voltage
	331	v(m.x7.x91.msky130_fd_pr__pfet_01v8_hvt#dbody)	voltage
	332	v(m.x7.x91.msky130_fd_pr__pfet_01v8_hvt#sbody)	voltage
	333	v(m.x7.x92.msky130_fd_pr__pfet_01v8_hvt#body)	voltage
	334	v(m.x7.x92.msky130_fd_pr__pfet_01v8_hvt#dbody)	voltage
	335	v(m.x7.x92.msky130_fd_pr__pfet_01v8_hvt#sbody)	voltage
	336	v(m.x7.x93.msky130_fd_pr__nfet_01v8#body)	voltage
	337	v(m.x7.x93.msky130_fd_pr__nfet_01v8#dbody)	voltage
	338	v(m.x7.x93.msky130_fd_pr__nfet_01v8#sbody)	voltage
	339	v(m.x7.x94.msky130_fd_pr__pfet_01v8_hvt#body)	voltage
	340	v(m.x7.x94.msky130_fd_pr__pfet_01v8_hvt#dbody)	voltage
	341	v(m.x7.x94.msky130_fd_pr__pfet_01v8_hvt#sbody)	voltage
	342	v(m.x7.x95.msky130_fd_pr__pfet_01v8_hvt#body)	voltage
	343	v(m.x7.x95.msky130_fd_pr__pfet_01v8_hvt#dbody)	voltage
	344	v(m.x7.x95.msky130_fd_pr__pfet_01v8_hvt#sbody)	voltage
	345	v(m.x7.x96.msky130_fd_pr__nfet_01v8#body)	voltage
	346	v(m.x7.x96.msky130_fd_pr__nfet_01v8#dbody)	voltage
	347	v(m.x7.x96.msky130_fd_pr__nfet_01v8#sbody)	voltage
	348	v(m.x7.x97.msky130_fd_pr__pfet_01v8_hvt#body)	voltage
	349	v(m.x7.x97.msky130_fd_pr__pfet_01v8_hvt#dbody)	voltage
	350	v(m.x7.x97.msky130_fd_pr__pfet_01v8_hvt#sbody)	voltage
	351	v(m.x7.x98.msky130_fd_pr__pfet_01v8_hvt#body)	voltage
	352	v(m.x7.x98.msky130_fd_pr__pfet_01v8_hvt#dbody)	voltage
	353	v(m.x7.x98.msky130_fd_pr__pfet_01v8_hvt#sbody)	voltage
	354	v(m.x7.x99.msky130_fd_pr__pfet_01v8_hvt#body)	voltage
	355	v(m.x7.x99.msky130_fd_pr__pfet_01v8_hvt#dbody)	voltage
	356	v(m.x7.x99.msky130_fd_pr__pfet_01v8_hvt#sbody)	voltage
	357	v(m.x7.x100.msky130_fd_pr__nfet_01v8#body)	voltage
	358	v(m.x7.x100.msky130_fd_pr__nfet_01v8#dbody)	voltage
	359	v(m.x7.x100.msky130_fd_pr__nfet_01v8#sbody)	voltage
	360	v(m.x7.x101.msky130_fd_pr__pfet_01v8_hvt#body)	voltage
	361	v(m.x7.x101.msky130_fd_pr__pfet_01v8_hvt#dbody)	voltage
	362	v(m.x7.x101.msky130_fd_pr__pfet_01v8_hvt#sbody)	voltage
	363	v(m.x7.x102.msky130_fd_pr__nfet_01v8#body)	voltage
	364	v(m.x7.x102.msky130_fd_pr__nfet_01v8#dbody)	voltage
	365	v(m.x7.x102.msky130_fd_pr__nfet_01v8#sbody)	voltage
	366	v(m.x7.x103.msky130_fd_pr__nfet_01v8#body)	voltage
	367	v(m.x7.x103.msky130_fd_pr__nfet_01v8#dbody)	voltage
	368	v(m.x7.x103.msky130_fd_pr__nfet_01v8#sbody)	voltage
	369	v(m.x7.x104.msky130_fd_pr__pfet_01v8_hvt#body)	voltage
	370	v(m.x7.x104.msky130_fd_pr__pfet_01v8_hvt#dbody)	voltage
	371	v(m.x7.x104.msky130_fd_pr__pfet_01v8_hvt#sbody)	voltage
	372	v(m.x7.x105.msky130_fd_pr__nfet_01v8#body)	voltage
	373	v(m.x7.x105.msky130_fd_pr__nfet_01v8#dbody)	voltage
	374	v(m.x7.x105.msky130_fd_pr__nfet_01v8#sbody)	voltage
	375	v(m.x7.x106.msky130_fd_pr__nfet_01v8#body)	voltage
	376	v(m.x7.x106.msky130_fd_pr__nfet_01v8#dbody)	voltage
	377	v(m.x7.x106.msky130_fd_pr__nfet_01v8#sbody)	voltage
	378	v(m.x7.x107.msky130_fd_pr__pfet_01v8_hvt#body)	voltage
	379	v(m.x7.x107.msky130_fd_pr__pfet_01v8_hvt#dbody)	voltage
	380	v(m.x7.x107.msky130_fd_pr__pfet_01v8_hvt#sbody)	voltage
	381	v(m.x7.x108.msky130_fd_pr__pfet_01v8_hvt#body)	voltage
	382	v(m.x7.x108.msky130_fd_pr__pfet_01v8_hvt#dbody)	voltage
	383	v(m.x7.x108.msky130_fd_pr__pfet_01v8_hvt#sbody)	voltage
	384	v(m.x7.x109.msky130_fd_pr__nfet_01v8#body)	voltage
	385	v(m.x7.x109.msky130_fd_pr__nfet_01v8#dbody)	voltage
	386	v(m.x7.x109.msky130_fd_pr__nfet_01v8#sbody)	voltage
	387	v(m.x7.x110.msky130_fd_pr__nfet_01v8#body)	voltage
	388	v(m.x7.x110.msky130_fd_pr__nfet_01v8#dbody)	voltage
	389	v(m.x7.x110.msky130_fd_pr__nfet_01v8#sbody)	voltage
	390	v(m.x7.x111.msky130_fd_pr__pfet_01v8_hvt#body)	voltage
	391	v(m.x7.x111.msky130_fd_pr__pfet_01v8_hvt#dbody)	voltage
	392	v(m.x7.x111.msky130_fd_pr__pfet_01v8_hvt#sbody)	voltage
	393	v(m.x7.x112.msky130_fd_pr__nfet_01v8#body)	voltage
	394	v(m.x7.x112.msky130_fd_pr__nfet_01v8#dbody)	voltage
	395	v(m.x7.x112.msky130_fd_pr__nfet_01v8#sbody)	voltage
	396	v(m.x7.x113.msky130_fd_pr__pfet_01v8_hvt#body)	voltage
	397	v(m.x7.x113.msky130_fd_pr__pfet_01v8_hvt#dbody)	voltage
	398	v(m.x7.x113.msky130_fd_pr__pfet_01v8_hvt#sbody)	voltage
	399	v(m.x7.x114.msky130_fd_pr__nfet_01v8#body)	voltage
	400	v(m.x7.x114.msky130_fd_pr__nfet_01v8#dbody)	voltage
	401	v(m.x7.x114.msky130_fd_pr__nfet_01v8#sbody)	voltage
	402	v(m.x7.x115.msky130_fd_pr__pfet_01v8_hvt#body)	voltage
	403	v(m.x7.x115.msky130_fd_pr__pfet_01v8_hvt#dbody)	voltage
	404	v(m.x7.x115.msky130_fd_pr__pfet_01v8_hvt#sbody)	voltage
	405	v(m.x7.x116.msky130_fd_pr__nfet_01v8#body)	voltage
	406	v(m.x7.x116.msky130_fd_pr__nfet_01v8#dbody)	voltage
	407	v(m.x7.x116.msky130_fd_pr__nfet_01v8#sbody)	voltage
	408	v(m.x7.x117.msky130_fd_pr__nfet_01v8#body)	voltage
	409	v(m.x7.x117.msky130_fd_pr__nfet_01v8#dbody)	voltage
	410	v(m.x7.x117.msky130_fd_pr__nfet_01v8#sbody)	voltage
	411	v(m.x7.x118.msky130_fd_pr__nfet_01v8#body)	voltage
	412	v(m.x7.x118.msky130_fd_pr__nfet_01v8#dbody)	voltage
	413	v(m.x7.x118.msky130_fd_pr__nfet_01v8#sbody)	voltage
	414	v(m.x7.x119.msky130_fd_pr__pfet_01v8_hvt#body)	voltage
	415	v(m.x7.x119.msky130_fd_pr__pfet_01v8_hvt#dbody)	voltage
	416	v(m.x7.x119.msky130_fd_pr__pfet_01v8_hvt#sbody)	voltage
	417	v(m.x7.x120.msky130_fd_pr__nfet_01v8#body)	voltage
	418	v(m.x7.x120.msky130_fd_pr__nfet_01v8#dbody)	voltage
	419	v(m.x7.x120.msky130_fd_pr__nfet_01v8#sbody)	voltage
	420	v(m.x7.x121.msky130_fd_pr__nfet_01v8#body)	voltage
	421	v(m.x7.x121.msky130_fd_pr__nfet_01v8#dbody)	voltage
	422	v(m.x7.x121.msky130_fd_pr__nfet_01v8#sbody)	voltage
	423	v(m.x7.x122.msky130_fd_pr__pfet_01v8_hvt#body)	voltage
	424	v(m.x7.x122.msky130_fd_pr__pfet_01v8_hvt#dbody)	voltage
	425	v(m.x7.x122.msky130_fd_pr__pfet_01v8_hvt#sbody)	voltage
	426	v(m.x7.x123.msky130_fd_pr__nfet_01v8#body)	voltage
	427	v(m.x7.x123.msky130_fd_pr__nfet_01v8#dbody)	voltage
	428	v(m.x7.x123.msky130_fd_pr__nfet_01v8#sbody)	voltage
	429	v(m.x7.x124.msky130_fd_pr__pfet_01v8_hvt#body)	voltage
	430	v(m.x7.x124.msky130_fd_pr__pfet_01v8_hvt#dbody)	voltage
	431	v(m.x7.x124.msky130_fd_pr__pfet_01v8_hvt#sbody)	voltage
	432	v(m.x7.x125.msky130_fd_pr__pfet_01v8_hvt#body)	voltage
	433	v(m.x7.x125.msky130_fd_pr__pfet_01v8_hvt#dbody)	voltage
	434	v(m.x7.x125.msky130_fd_pr__pfet_01v8_hvt#sbody)	voltage
	435	v(m.x7.x126.msky130_fd_pr__pfet_01v8_hvt#body)	voltage
	436	v(m.x7.x126.msky130_fd_pr__pfet_01v8_hvt#dbody)	voltage
	437	v(m.x7.x126.msky130_fd_pr__pfet_01v8_hvt#sbody)	voltage
	438	v(m.x7.x127.msky130_fd_pr__pfet_01v8_hvt#body)	voltage
	439	v(m.x7.x127.msky130_fd_pr__pfet_01v8_hvt#dbody)	voltage
	440	v(m.x7.x127.msky130_fd_pr__pfet_01v8_hvt#sbody)	voltage
	441	v(m.x7.x128.msky130_fd_pr__nfet_01v8#body)	voltage
	442	v(m.x7.x128.msky130_fd_pr__nfet_01v8#dbody)	voltage
	443	v(m.x7.x128.msky130_fd_pr__nfet_01v8#sbody)	voltage
	444	v(m.x7.x129.msky130_fd_pr__nfet_01v8#body)	voltage
	445	v(m.x7.x129.msky130_fd_pr__nfet_01v8#dbody)	voltage
	446	v(m.x7.x129.msky130_fd_pr__nfet_01v8#sbody)	voltage
	447	v(m.x7.x130.msky130_fd_pr__nfet_01v8#body)	voltage
	448	v(m.x7.x130.msky130_fd_pr__nfet_01v8#dbody)	voltage
	449	v(m.x7.x130.msky130_fd_pr__nfet_01v8#sbody)	voltage
	450	v(m.x7.x131.msky130_fd_pr__nfet_01v8#body)	voltage
	451	v(m.x7.x131.msky130_fd_pr__nfet_01v8#dbody)	voltage
	452	v(m.x7.x131.msky130_fd_pr__nfet_01v8#sbody)	voltage
	453	v(m.x7.x132.msky130_fd_pr__pfet_01v8_hvt#body)	voltage
	454	v(m.x7.x132.msky130_fd_pr__pfet_01v8_hvt#dbody)	voltage
	455	v(m.x7.x132.msky130_fd_pr__pfet_01v8_hvt#sbody)	voltage
	456	v(m.x7.x133.msky130_fd_pr__pfet_01v8_hvt#body)	voltage
	457	v(m.x7.x133.msky130_fd_pr__pfet_01v8_hvt#dbody)	voltage
	458	v(m.x7.x133.msky130_fd_pr__pfet_01v8_hvt#sbody)	voltage
	459	v(m.x7.x134.msky130_fd_pr__pfet_01v8_hvt#body)	voltage
	460	v(m.x7.x134.msky130_fd_pr__pfet_01v8_hvt#dbody)	voltage
	461	v(m.x7.x134.msky130_fd_pr__pfet_01v8_hvt#sbody)	voltage
	462	v(m.x7.x135.msky130_fd_pr__pfet_01v8_hvt#body)	voltage
	463	v(m.x7.x135.msky130_fd_pr__pfet_01v8_hvt#dbody)	voltage
	464	v(m.x7.x135.msky130_fd_pr__pfet_01v8_hvt#sbody)	voltage
	465	v(m.x7.x136.msky130_fd_pr__pfet_01v8_hvt#body)	voltage
	466	v(m.x7.x136.msky130_fd_pr__pfet_01v8_hvt#dbody)	voltage
	467	v(m.x7.x136.msky130_fd_pr__pfet_01v8_hvt#sbody)	voltage
	468	v(m.x7.x137.msky130_fd_pr__pfet_01v8_hvt#body)	voltage
	469	v(m.x7.x137.msky130_fd_pr__pfet_01v8_hvt#dbody)	voltage
	470	v(m.x7.x137.msky130_fd_pr__pfet_01v8_hvt#sbody)	voltage
	471	v(m.x7.x138.msky130_fd_pr__nfet_01v8#body)	voltage
	472	v(m.x7.x138.msky130_fd_pr__nfet_01v8#dbody)	voltage
	473	v(m.x7.x138.msky130_fd_pr__nfet_01v8#sbody)	voltage
	474	v(m.x7.x139.msky130_fd_pr__nfet_01v8#body)	voltage
	475	v(m.x7.x139.msky130_fd_pr__nfet_01v8#dbody)	voltage
	476	v(m.x7.x139.msky130_fd_pr__nfet_01v8#sbody)	voltage
	477	v(m.x7.x140.msky130_fd_pr__nfet_01v8#body)	voltage
	478	v(m.x7.x140.msky130_fd_pr__nfet_01v8#dbody)	voltage
	479	v(m.x7.x140.msky130_fd_pr__nfet_01v8#sbody)	voltage
	480	v(m.x7.x141.msky130_fd_pr__pfet_01v8_hvt#body)	voltage
	481	v(m.x7.x141.msky130_fd_pr__pfet_01v8_hvt#dbody)	voltage
	482	v(m.x7.x141.msky130_fd_pr__pfet_01v8_hvt#sbody)	voltage
	483	v(m.x7.x142.msky130_fd_pr__pfet_01v8_hvt#body)	voltage
	484	v(m.x7.x142.msky130_fd_pr__pfet_01v8_hvt#dbody)	voltage
	485	v(m.x7.x142.msky130_fd_pr__pfet_01v8_hvt#sbody)	voltage
	486	v(m.x7.x143.msky130_fd_pr__pfet_01v8_hvt#body)	voltage
	487	v(m.x7.x143.msky130_fd_pr__pfet_01v8_hvt#dbody)	voltage
	488	v(m.x7.x143.msky130_fd_pr__pfet_01v8_hvt#sbody)	voltage
	489	v(m.x7.x144.msky130_fd_pr__pfet_01v8_hvt#body)	voltage
	490	v(m.x7.x144.msky130_fd_pr__pfet_01v8_hvt#dbody)	voltage
	491	v(m.x7.x144.msky130_fd_pr__pfet_01v8_hvt#sbody)	voltage
	492	v(m.x7.x145.msky130_fd_pr__pfet_01v8_hvt#body)	voltage
	493	v(m.x7.x145.msky130_fd_pr__pfet_01v8_hvt#dbody)	voltage
	494	v(m.x7.x145.msky130_fd_pr__pfet_01v8_hvt#sbody)	voltage
	495	v(m.x7.x146.msky130_fd_pr__pfet_01v8_hvt#body)	voltage
	496	v(m.x7.x146.msky130_fd_pr__pfet_01v8_hvt#dbody)	voltage
	497	v(m.x7.x146.msky130_fd_pr__pfet_01v8_hvt#sbody)	voltage
	498	v(m.x7.x147.msky130_fd_pr__nfet_01v8#body)	voltage
	499	v(m.x7.x147.msky130_fd_pr__nfet_01v8#dbody)	voltage
	500	v(m.x7.x147.msky130_fd_pr__nfet_01v8#sbody)	voltage
	501	v(m.x7.x148.msky130_fd_pr__nfet_01v8#body)	voltage
	502	v(m.x7.x148.msky130_fd_pr__nfet_01v8#dbody)	voltage
	503	v(m.x7.x148.msky130_fd_pr__nfet_01v8#sbody)	voltage
	504	v(m.x7.x149.msky130_fd_pr__pfet_01v8_hvt#body)	voltage
	505	v(m.x7.x149.msky130_fd_pr__pfet_01v8_hvt#dbody)	voltage
	506	v(m.x7.x149.msky130_fd_pr__pfet_01v8_hvt#sbody)	voltage
	507	v(m.x7.x150.msky130_fd_pr__pfet_01v8_hvt#body)	voltage
	508	v(m.x7.x150.msky130_fd_pr__pfet_01v8_hvt#dbody)	voltage
	509	v(m.x7.x150.msky130_fd_pr__pfet_01v8_hvt#sbody)	voltage
	510	v(m.x7.x151.msky130_fd_pr__pfet_01v8_hvt#body)	voltage
	511	v(m.x7.x151.msky130_fd_pr__pfet_01v8_hvt#dbody)	voltage
	512	v(m.x7.x151.msky130_fd_pr__pfet_01v8_hvt#sbody)	voltage
	513	v(m.x7.x152.msky130_fd_pr__pfet_01v8_hvt#body)	voltage
	514	v(m.x7.x152.msky130_fd_pr__pfet_01v8_hvt#dbody)	voltage
	515	v(m.x7.x152.msky130_fd_pr__pfet_01v8_hvt#sbody)	voltage
	516	v(m.x7.x153.msky130_fd_pr__nfet_01v8#body)	voltage
	517	v(m.x7.x153.msky130_fd_pr__nfet_01v8#dbody)	voltage
	518	v(m.x7.x153.msky130_fd_pr__nfet_01v8#sbody)	voltage
	519	v(m.x7.x154.msky130_fd_pr__nfet_01v8#body)	voltage
	520	v(m.x7.x154.msky130_fd_pr__nfet_01v8#dbody)	voltage